LAMMPS data file via write_data, version 6 Oct 2016, timestep = 0

2160 atoms
3 atom types
1296 bonds
1 bond types
1296 angles
1 angle types
432 impropers
1 improper types

-7.3166938339093743e+00 2.2286694833909678e+01 xlo xhi
-5.8437249960164195e-01 2.5072236499601388e+01 ylo yhi
-8.5352023875471872e-01 3.3555519238754229e+01 zlo zhi
-1.4793744227543273e+01 -7.0012159775710445e-02 -9.4979192482445955e-03 xy xz yz

Masses

1 40.08
2 12.01
3 16

Bond Coeffs # harmonic

1 20.4246 1.3042

Angle Coeffs # class2

1 120 6.617 0 0

BondBond Coeffs

1 12.818 1.3042 1.3042

BondAngle Coeffs

1 1.53319 1.53319 1.3042 1.3042

Atoms # full

1 1 1 2.0000000000000000e+00 -1.2827878088566358e-01 2.2941997150949101e-01 -3.7867354011100196e-02 0 0 0
2 2 1 2.0000000000000000e+00 1.0733467936949204e-01 2.1931258633652273e-01 8.3879995929054019e+00 0 0 0
3 3 1 2.0000000000000000e+00 2.5804376802880569e+00 1.4732151987185595e+00 5.6285255727604033e+00 0 0 0
4 4 1 2.0000000000000000e+00 2.5621515133641601e+00 1.5519019971737271e+00 1.4144742857326376e+01 0 0 0
5 5 1 2.0000000000000000e+00 1.3416888487127121e-01 3.0136881821113737e+00 1.1400002391545321e+01 0 0 0
6 6 1 2.0000000000000000e+00 4.1066563261612288e-02 2.9644437474929743e+00 2.8461056892412624e+00 0 0 0
7 7 2 1.1232850000000001e+00 1.0455401804523135e-01 1.1372704330929262e-01 4.2144771010678239e+00 0 0 0
8 7 3 -1.0410950000000001e+00 1.4086028822625227e+00 2.2441358469340589e-03 4.1385670598504083e+00 0 0 0
9 7 3 -1.0410950000000001e+00 -4.1501420830039581e-01 1.3125402057591933e+00 4.3776970893693381e+00 0 0 0
10 7 3 -1.0410950000000001e+00 -1.5356552053569407e+01 2.4726563906593174e+01 4.1194468758805938e+00 0 -1 0
11 8 2 1.1232850000000001e+00 -6.5644959149593340e-02 1.5441692250853678e-01 1.2903869087714900e+01 0 0 0
12 8 3 -1.0410950000000001e+00 -1.3343506522010076e+00 2.6962150824440634e-01 1.2825053767531397e+01 0 0 0
13 8 3 -1.0410950000000001e+00 -1.4274905244100861e+01 2.4676389894524672e+01 1.2822611944228905e+01 0 -1 0
14 8 3 -1.0410950000000001e+00 6.0686699292012047e-01 1.2526507425506652e+00 1.2921183122676908e+01 0 0 0
15 9 2 1.1232850000000001e+00 2.5163255417916837e+00 1.5727000098357378e+00 1.0028424467309195e+01 0 0 0
16 9 3 -1.0410950000000001e+00 3.8353264124314741e+00 1.4784511962755604e+00 1.0043001460975656e+01 0 0 0
17 9 3 -1.0410950000000001e+00 1.9307927698829186e+00 2.7494353545118018e+00 1.0035096017420074e+01 0 0 0
18 9 3 -1.0410950000000001e+00 1.8429562762820311e+00 5.3621344664414750e-01 1.0083468233855260e+01 0 0 0
19 10 2 1.1232850000000001e+00 2.4948502759060922e+00 1.5179734408298962e+00 1.4701286842646937e+00 0 0 0
20 10 3 -1.0410950000000001e+00 1.2193792708865043e+00 1.2448547728647688e+00 1.4600249326983272e+00 0 0 0
21 10 3 -1.0410950000000001e+00 3.3415739686809562e+00 5.2909955134170028e-01 1.4279654812043501e+00 0 0 0
22 10 3 -1.0410950000000001e+00 2.9561812436215256e+00 2.7394095115521679e+00 1.4697155372633373e+00 0 0 0
23 11 2 1.1232850000000001e+00 1.5521420518744211e-01 2.9252617853311667e+00 1.5763631012053381e+01 0 0 0
24 11 3 -1.0410950000000001e+00 1.3940947324184130e+00 2.8136010990920424e+00 1.5805881531052471e+01 0 0 0
25 11 3 -1.0410950000000001e+00 -3.7383341711856133e-01 4.1187858984729795e+00 1.5706439186973018e+01 0 0 0
26 11 3 -1.0410950000000001e+00 -6.4550011914881367e-01 1.8463152240596719e+00 1.5827256263197992e+01 0 0 0
27 12 2 1.1232850000000001e+00 1.9938215313397212e-01 2.9028917307832520e+00 6.9779365700679694e+00 0 0 0
28 12 3 -1.0410950000000001e+00 -1.1058000167682929e+00 2.7763642328416283e+00 6.8478085720983346e+00 0 0 0
29 12 3 -1.0410950000000001e+00 8.9450663498800154e-01 1.8452189322705155e+00 7.0331292835977779e+00 0 0 0
30 12 3 -1.0410950000000001e+00 7.0551056170114279e-01 4.0296092945005411e+00 7.1654445729607907e+00 0 0 0
31 13 1 2.0000000000000000e+00 5.1107260522927405e+00 1.7116730825288640e-02 -1.9117145075498831e-01 0 0 0
32 14 1 2.0000000000000000e+00 4.9725048424703147e+00 7.0681736731450950e-02 8.5407310126137581e+00 0 0 0
35 17 1 2.0000000000000000e+00 5.0564872630504389e+00 3.0426976881107781e+00 1.1494376018773698e+01 0 0 0
36 18 1 2.0000000000000000e+00 4.9188497233395587e+00 3.0674768112725364e+00 2.6541097729121033e+00 0 0 0
37 19 2 1.1232850000000001e+00 5.0788565828109871e+00 3.0057117494947205e-01 3.9765542364960567e+00 0 0 0
38 19 3 -1.0410950000000001e+00 6.3460526716462020e+00 3.6804640885459550e-01 4.0600044332927743e+00 0 0 0
39 19 3 -1.0410950000000001e+00 4.3024841585624003e+00 1.3714412739925081e+00 4.0651461423063031e+00 0 0 0
40 19 3 -1.0410950000000001e+00 -1.0288235767526270e+01 2.4767711078702607e+01 3.9859714332962204e+00 0 -1 0
41 20 2 1.1232850000000001e+00 5.0342312114265937e+00 9.4323524436792372e-02 1.2710384971040606e+01 0 0 0
42 20 3 -1.0410950000000001e+00 3.7493792679565416e+00 1.1355034864051661e-01 1.2800836691909909e+01 0 0 0
43 20 3 -1.0410950000000001e+00 -9.1134978540129534e+00 2.4656606287275906e+01 1.2747259410390081e+01 0 -1 0
44 20 3 -1.0410950000000001e+00 5.6348162894548306e+00 1.2036582298751393e+00 1.2834261724363801e+01 0 0 0
410 166 3 -1.0410950000000001e+00 1.2947683947772859e+00 1.0005782825483182e+01 1.2346190500796523e+00 0 0 0
950 382 3 -1.0410950000000001e+00 -6.3310073297729463e+00 2.3086657639306758e+01 1.1841956984843969e+00 0 0 0
53 23 2 1.1232850000000001e+00 4.9962539773251962e+00 3.0435879985940035e+00 1.5550171720143549e+01 0 0 0
55 23 3 -1.0410950000000001e+00 4.2642878412203000e+00 4.1003614001072082e+00 1.5662783277691592e+01 0 0 0
56 23 3 -1.0410950000000001e+00 4.4553513400611493e+00 1.8747961943026481e+00 1.5617149826276691e+01 0 0 0
57 24 2 1.1232850000000001e+00 5.0649041903540368e+00 3.0409157643999123e+00 7.0717828948645360e+00 0 0 0
58 24 3 -1.0410950000000001e+00 3.7525536604550052e+00 3.0227141104934301e+00 7.0195274437764201e+00 0 0 0
59 24 3 -1.0410950000000001e+00 5.7544738847067531e+00 1.9733531698017965e+00 7.1849730707170991e+00 0 0 0
123 51 1 2.0000000000000000e+00 -7.3081450712931977e+00 1.4755975055051520e+00 5.5824411742544733e+00 1 0 0
124 52 1 2.0000000000000000e+00 -7.3454002255285893e+00 1.4582530586057398e+00 1.4266102475379100e+01 1 0 0
135 57 2 1.1232850000000001e+00 -7.2027972246455247e+00 1.4334799289852351e+00 9.8645010647245304e+00 1 0 0
136 57 3 -1.0410950000000001e+00 -5.8937190364190366e+00 1.6328282226289668e+00 9.8113709563876608e+00 1 0 0
137 57 3 -1.0410950000000001e+00 -8.0142585065632641e+00 2.4024486602472752e+00 9.8788565079852830e+00 1 0 0
139 58 2 1.1232850000000001e+00 -7.3636370874938093e+00 1.4858565468807532e+00 1.2568589013032003e+00 1 0 0
141 58 3 -1.0410950000000001e+00 -6.7701990868389954e+00 3.1448965515896743e-01 1.3340358850731957e+00 1 0 0
142 58 3 -1.0410950000000001e+00 -6.6610714443427206e+00 2.5557075604735040e+00 1.2430892093073314e+00 1 0 0
144 59 3 -1.0410950000000001e+00 -8.5794038015820107e+00 2.8777602732290544e+00 1.5701566439966022e+01 1 0 0
150 60 3 -1.0410950000000001e+00 -9.0888697445387692e+00 4.0657933922189988e+00 6.9436538076974443e+00 1 0 0
151 61 1 2.0000000000000000e+00 -4.9591480511801525e+00 2.5452237453720838e-01 -1.7573102167859922e-01 1 0 0
152 62 1 2.0000000000000000e+00 -4.7589453413471361e+00 6.4656985239021414e-02 8.6290123608157803e+00 1 0 0
153 63 1 2.0000000000000000e+00 -2.3816611402001868e+00 1.4592738052484311e+00 5.4599150951716950e+00 1 0 0
154 64 1 2.0000000000000000e+00 -2.3511925388004276e+00 1.6576905468157102e+00 1.4221771988434764e+01 1 0 0
155 65 1 2.0000000000000000e+00 -4.7032135865380482e+00 3.0825622694317012e+00 1.1424457966897247e+01 1 0 0
156 66 1 2.0000000000000000e+00 -4.9085589471725175e+00 2.9974370847632836e+00 2.8336716415104477e+00 1 0 0
157 67 2 1.1232850000000001e+00 -4.8291549882636264e+00 -3.0711222544748673e-02 4.0475952188005984e+00 1 0 0
158 67 3 -1.0410950000000001e+00 -3.5887266787897349e+00 5.8450702066073168e-02 4.0769241259783877e+00 1 0 0
159 67 3 -1.0410950000000001e+00 -5.4954723136480439e+00 1.0582338785789680e+00 4.1252264781785293e+00 1 0 0
160 67 3 -1.0410950000000001e+00 -2.0194223257328801e+01 2.4460273037988678e+01 4.0710478609388723e+00 1 -1 0
161 68 2 1.1232850000000001e+00 -4.8750089882595464e+00 1.1885789157963855e-01 1.2832611879391406e+01 1 0 0
162 68 3 -1.0410950000000001e+00 -6.1711310379357354e+00 7.6255604774779218e-02 1.2806351331739670e+01 1 0 0
163 68 3 -1.0410950000000001e+00 -1.9038978040886775e+01 2.4694664493141648e+01 1.2710424403221277e+01 1 -1 0
164 68 3 -1.0410950000000001e+00 -4.2866528994786854e+00 1.2704012472162609e+00 1.2866624402151404e+01 1 0 0
165 69 2 1.1232850000000001e+00 -2.3585571279153639e+00 1.5589583644005836e+00 9.8397811302542966e+00 1 0 0
166 69 3 -1.0410950000000001e+00 -1.0984266451746958e+00 1.6397388522671830e+00 9.7146690291275952e+00 1 0 0
167 69 3 -1.0410950000000001e+00 -3.0511883329961638e+00 2.6373017786009219e+00 9.8851802989739284e+00 1 0 0
168 69 3 -1.0410950000000001e+00 -2.9115316878382762e+00 3.8533221127031048e-01 9.8664160750747225e+00 1 0 0
169 70 2 1.1232850000000001e+00 -2.4173638193814524e+00 1.5831904410974529e+00 1.3901568046870092e+00 1 0 0
170 70 3 -1.0410950000000001e+00 -3.6785615834537375e+00 1.7792509539192838e+00 1.1464597228581859e+00 1 0 0
171 70 3 -1.0410950000000001e+00 -2.0056537425349443e+00 3.9039323728205721e-01 1.4238716869374257e+00 1 0 0
172 70 3 -1.0410950000000001e+00 -1.5911910164159675e+00 2.5860990689251939e+00 1.3658703657833269e+00 1 0 0
173 71 2 1.1232850000000001e+00 -4.8798713173762405e+00 3.0629532210697428e+00 1.5623436911210785e+01 1 0 0
174 71 3 -1.0410950000000001e+00 -3.5931733096115073e+00 2.9436865147229621e+00 1.5629370277547075e+01 1 0 0
175 71 3 -1.0410950000000001e+00 -5.4416313806895840e+00 4.1916307806509669e+00 1.5561621225622059e+01 1 0 0
176 71 3 -1.0410950000000001e+00 -5.6118569402222862e+00 1.9963408584777391e+00 1.5683407328730521e+01 1 0 0
177 72 2 1.1232850000000001e+00 -4.7717959175448144e+00 2.9267773831751440e+00 7.1349541752745207e+00 1 0 0
178 72 3 -1.0410950000000001e+00 -6.0745107651996646e+00 2.7661497977832448e+00 7.1282785718100810e+00 1 0 0
179 72 3 -1.0410950000000001e+00 -3.9905004001185262e+00 1.9278360750094583e+00 7.0862641537092284e+00 1 0 0
180 72 3 -1.0410950000000001e+00 -4.2750003099410225e+00 4.1605799379751005e+00 7.2284248903676112e+00 1 0 0
181 73 1 2.0000000000000000e+00 -2.3426042640236595e+00 4.2884073501274802e+00 -8.3156223290723252e-02 0 0 0
182 74 1 2.0000000000000000e+00 -2.3072371193713952e+00 4.2259034479255702e+00 8.4220391305410107e+00 0 0 0
183 75 1 2.0000000000000000e+00 2.6202766354129103e-02 5.8056428110715501e+00 5.7368796018976322e+00 0 0 0
184 76 1 2.0000000000000000e+00 2.5720341086568688e-01 5.9735635211769322e+00 1.4277212442759158e+01 0 0 0
185 77 1 2.0000000000000000e+00 -2.3046775103536783e+00 7.1043280477075355e+00 1.1312682882031108e+01 0 0 0
186 78 1 2.0000000000000000e+00 -2.3415480846953098e+00 7.1803728823790571e+00 2.8122006442915799e+00 0 0 0
187 79 2 1.1232850000000001e+00 -2.3252950067279485e+00 4.4373505330050147e+00 4.3006870227874234e+00 0 0 0
188 79 3 -1.0410950000000001e+00 -1.0543993352970418e+00 4.4615686563407344e+00 4.2005534919734266e+00 0 0 0
189 79 3 -1.0410950000000001e+00 -3.0060555289122481e+00 5.5400295736233138e+00 4.2762057860202649e+00 0 0 0
190 79 3 -1.0410950000000001e+00 -2.9780099938177482e+00 3.3084633815724254e+00 4.2671197352731598e+00 0 0 0
191 80 2 1.1232850000000001e+00 -2.3424318516368139e+00 4.3926539089037178e+00 1.2817676762417475e+01 0 0 0
192 80 3 -1.0410950000000001e+00 -3.6087997566353640e+00 4.5103669855587283e+00 1.2849953804294870e+01 0 0 0
193 80 3 -1.0410950000000001e+00 -1.8463599573317611e+00 3.2551387790055375e+00 1.2522005604634661e+01 0 0 0
194 80 3 -1.0410950000000001e+00 -1.6214546866905728e+00 5.5067168307630325e+00 1.2857743015459022e+01 0 0 0
195 81 2 1.1232850000000001e+00 1.3210813310645086e-01 5.8619881998487049e+00 9.7523801231932872e+00 0 0 0
196 81 3 -1.0410950000000001e+00 1.3961045631005913e+00 5.9575211780079611e+00 9.8744181972233900e+00 0 0 0
197 81 3 -1.0410950000000001e+00 -6.2875013024974002e-01 6.8706911358169549e+00 9.7431988262910991e+00 0 0 0
198 81 3 -1.0410950000000001e+00 -3.7341908965525672e-01 4.6469959530622855e+00 9.8464137714521804e+00 0 0 0
199 82 2 1.1232850000000001e+00 9.1541569998707217e-02 5.6680208803590224e+00 1.3487491806399134e+00 0 0 0
200 82 3 -1.0410950000000001e+00 -1.1948772569941921e+00 5.5742668238289017e+00 1.5187665603740101e+00 0 0 0
201 82 3 -1.0410950000000001e+00 7.6406711467511457e-01 4.5628079754648656e+00 1.3250609667234894e+00 0 0 0
202 82 3 -1.0410950000000001e+00 7.1747926807161377e-01 6.7089289499204670e+00 1.0956741166083921e+00 0 0 0
203 83 2 1.1232850000000001e+00 -2.3803091380035593e+00 7.2425781061949994e+00 1.5640093576568812e+01 0 0 0
204 83 3 -1.0410950000000001e+00 -1.0637880165005074e+00 7.2342955036733372e+00 1.5679971193842125e+01 0 0 0
205 83 3 -1.0410950000000001e+00 -3.0516213948370101e+00 8.3824824274712526e+00 1.5460149276723158e+01 0 0 0
206 83 3 -1.0410950000000001e+00 -3.0208881130829761e+00 6.1762644628856318e+00 1.5759339774024063e+01 0 0 0
207 84 2 1.1232850000000001e+00 -2.4342080245215989e+00 7.1824506459511879e+00 6.9289184539670972e+00 0 0 0
208 84 3 -1.0410950000000001e+00 -3.6778726398195327e+00 7.4603113114758699e+00 7.1621071795750630e+00 0 0 0
209 84 3 -1.0410950000000001e+00 -2.0034854154804229e+00 5.9723423906021598e+00 7.0166912526899772e+00 0 0 0
210 84 3 -1.0410950000000001e+00 -1.5881843541866445e+00 8.1788084515304362e+00 6.7247843645550089e+00 0 0 0
211 85 1 2.0000000000000000e+00 2.4298891013601605e+00 4.3636624232060530e+00 -1.6722986467475043e-01 0 0 0
212 86 1 2.0000000000000000e+00 2.5756973436815063e+00 4.4895459293061295e+00 8.4207632359635838e+00 0 0 0
215 89 1 2.0000000000000000e+00 2.5862043870076619e+00 7.3446870322327484e+00 1.1332750593197376e+01 0 0 0
216 90 1 2.0000000000000000e+00 2.5801757295162666e+00 7.1893165443532334e+00 2.6941103116924481e+00 0 0 0
217 91 2 1.1232850000000001e+00 2.4764785506659734e+00 4.4963481790036237e+00 4.2181340659242386e+00 0 0 0
218 91 3 -1.0410950000000001e+00 3.7288161073798172e+00 4.5084219364427520e+00 4.1960507232468780e+00 0 0 0
219 91 3 -1.0410950000000001e+00 1.8138747136153981e+00 5.5843591834418422e+00 4.1866281573290456e+00 0 0 0
220 91 3 -1.0410950000000001e+00 1.8128886025049109e+00 3.3362612627011479e+00 4.3285497860852287e+00 0 0 0
221 92 2 1.1232850000000001e+00 2.4872722999880175e+00 4.4652877157759301e+00 1.3010958378865425e+01 0 0 0
222 92 3 -1.0410950000000001e+00 1.2017017382869302e+00 4.3822475621587325e+00 1.3019072037350112e+01 0 0 0
223 92 3 -1.0410950000000001e+00 3.1997278654259524e+00 3.4128782731982739e+00 1.2958131684887071e+01 0 0 0
224 92 3 -1.0410950000000001e+00 3.1121878917880039e+00 5.6338398822065843e+00 1.2867043993930912e+01 0 0 0
1080 432 3 -1.0410950000000001e+00 -1.5980311516810621e+00 -2.9410663862801240e-01 6.8367811045111999e+00 1 1 0
1074 431 3 -1.0410950000000001e+00 -1.6004363846639823e+01 2.4298061762565439e+01 1.5669414831352420e+01 1 0 0
233 95 2 1.1232850000000001e+00 2.4902740381588480e+00 7.2940011256063535e+00 1.5669280872846496e+01 0 0 0
235 95 3 -1.0410950000000001e+00 1.7124225577611583e+00 8.3170493985897078e+00 1.5698717094890014e+01 0 0 0
236 95 3 -1.0410950000000001e+00 2.0528864330335690e+00 6.1028399783163536e+00 1.5688116945779637e+01 0 0 0
237 96 2 1.1232850000000001e+00 2.5626395261235757e+00 7.2081263195169880e+00 7.0986431422506007e+00 0 0 0
238 96 3 -1.0410950000000001e+00 1.3311551385833198e+00 6.9912463060058023e+00 7.0889469774760565e+00 0 0 0
239 96 3 -1.0410950000000001e+00 3.3074251785279216e+00 6.1957802350406066e+00 7.1833677254239650e+00 0 0 0
303 123 1 2.0000000000000000e+00 -9.7262555048873036e+00 5.7766842388574444e+00 5.5453889664640235e+00 1 0 0
304 124 1 2.0000000000000000e+00 -9.8013473263154847e+00 5.9691643386318169e+00 1.4079737109450607e+01 1 0 0
315 129 2 1.1232850000000001e+00 -9.7351905640596446e+00 5.7550045087376285e+00 9.9270464583643516e+00 1 0 0
316 129 3 -1.0410950000000001e+00 -8.4006723895217768e+00 5.7762307965988171e+00 9.9752789621891509e+00 1 0 0
317 129 3 -1.0410950000000001e+00 -1.0411280449371782e+01 6.7900829684176633e+00 9.7810917664409445e+00 1 0 0
319 130 2 1.1232850000000001e+00 -9.7919008679875486e+00 5.8695648805351848e+00 1.2758385129808221e+00 1 0 0
321 130 3 -1.0410950000000001e+00 -9.2349952806314555e+00 4.7608068561501860e+00 1.3403186232852602e+00 1 0 0
322 130 3 -1.0410950000000001e+00 -9.0202136638265831e+00 6.9119179861335542e+00 1.3258641584760098e+00 1 0 0
324 131 3 -1.0410950000000001e+00 -1.1080735662852852e+01 7.2361794846278178e+00 1.5575864296237764e+01 1 0 0
330 132 3 -1.0410950000000001e+00 -1.1899873209549273e+01 8.4239813925892602e+00 7.0657642957579521e+00 1 0 0
331 133 1 2.0000000000000000e+00 -7.3352150273209613e+00 4.4415863791237875e+00 4.4446736336680170e-02 1 0 0
332 134 1 2.0000000000000000e+00 -7.2509762361320576e+00 4.2095075085446272e+00 8.6015974001198554e+00 1 0 0
333 135 1 2.0000000000000000e+00 -4.8201333415004228e+00 5.9377867989047983e+00 5.7739848452167246e+00 1 0 0
334 136 1 2.0000000000000000e+00 -4.8534393584259679e+00 5.9334615956430641e+00 1.4231723509796067e+01 1 0 0
335 137 1 2.0000000000000000e+00 -7.3269761323956910e+00 7.2650921248250349e+00 1.1281948270625103e+01 1 0 0
336 138 1 2.0000000000000000e+00 -7.2034175259243360e+00 7.3049902860613631e+00 2.7677683128894657e+00 1 0 0
337 139 2 1.1232850000000001e+00 -7.3432003265338803e+00 4.4009713286404955e+00 4.3201139364970382e+00 1 0 0
338 139 3 -1.0410950000000001e+00 -6.0794230640740192e+00 4.1666857038332932e+00 4.4575763722630821e+00 1 0 0
339 139 3 -1.0410950000000001e+00 -7.7811986141466747e+00 5.5897754396355257e+00 4.2129197760064594e+00 1 0 0
340 139 3 -1.0410950000000001e+00 -8.1631764359557177e+00 3.3556739649780658e+00 4.2599393256400422e+00 1 0 0
341 140 2 1.1232850000000001e+00 -7.2750252218724922e+00 4.4586109557952316e+00 1.2824963353157976e+01 1 0 0
342 140 3 -1.0410950000000001e+00 -8.5784459971069928e+00 4.4509230884683362e+00 1.2796410341088546e+01 1 0 0
343 140 3 -1.0410950000000001e+00 -6.6246238205974493e+00 3.3469790837690052e+00 1.2969123951275776e+01 1 0 0
344 140 3 -1.0410950000000001e+00 -6.5981913371431125e+00 5.5487685635613690e+00 1.2747079670848263e+01 1 0 0
345 141 2 1.1232850000000001e+00 -4.8575593657201921e+00 5.8490335923469097e+00 9.9428402676039109e+00 1 0 0
346 141 3 -1.0410950000000001e+00 -3.5993125146109430e+00 5.6354684515358349e+00 9.8149296201407470e+00 1 0 0
347 141 3 -1.0410950000000001e+00 -5.3495647039416987e+00 7.0365222551215778e+00 9.9558026007289051e+00 1 0 0
348 141 3 -1.0410950000000001e+00 -5.6141869497540142e+00 4.7772119337736774e+00 1.0043316515204095e+01 1 0 0
349 142 2 1.1232850000000001e+00 -4.7755610968904740e+00 5.7880533262576348e+00 1.5127092568762266e+00 1 0 0
350 142 3 -1.0410950000000001e+00 -6.0748281135933446e+00 5.6300133145538513e+00 1.6765067595683871e+00 1 0 0
351 142 3 -1.0410950000000001e+00 -3.9906987678275749e+00 4.7753391030241890e+00 1.4763964731420085e+00 1 0 0
352 142 3 -1.0410950000000001e+00 -4.3475239494798963e+00 6.9557987528595424e+00 1.5591824384869466e+00 1 0 0
353 143 2 1.1232850000000001e+00 -7.4446426357293713e+00 7.2280973047888617e+00 1.5473051813152509e+01 1 0 0
354 143 3 -1.0410950000000001e+00 -6.2005521043080574e+00 7.3215523911275522e+00 1.5596375090576100e+01 1 0 0
355 143 3 -1.0410950000000001e+00 -8.2165806710009530e+00 8.2920967394010443e+00 1.5450134030727675e+01 1 0 0
356 143 3 -1.0410950000000001e+00 -8.0012791364875611e+00 6.0624833705977554e+00 1.5438730312474274e+01 1 0 0
357 144 2 1.1232850000000001e+00 -7.3059480536991144e+00 7.1176908935286116e+00 7.1618069591547648e+00 1 0 0
358 144 3 -1.0410950000000001e+00 -8.5820117602563819e+00 7.1386808316110688e+00 7.0259868636022604e+00 1 0 0
359 144 3 -1.0410950000000001e+00 -6.7446136308442739e+00 6.0111280292061400e+00 7.2749897242934143e+00 1 0 0
360 144 3 -1.0410950000000001e+00 -6.6350581287763504e+00 8.2488440143589390e+00 7.1826416708619139e+00 1 0 0
361 145 1 2.0000000000000000e+00 -4.7776022043654347e+00 8.6732535905361079e+00 -1.7832359421825283e-01 0 0 0
362 146 1 2.0000000000000000e+00 -4.8211291822112479e+00 8.7688755017172060e+00 8.6099653200914013e+00 0 0 0
363 147 1 2.0000000000000000e+00 -2.3775181954749103e+00 1.0118359758007367e+01 5.6256298831825360e+00 0 0 0
364 148 1 2.0000000000000000e+00 -2.4300828867093296e+00 1.0089923285775765e+01 1.4063789656376869e+01 0 0 0
365 149 1 2.0000000000000000e+00 -4.9174708064502219e+00 1.1649444750186317e+01 1.1452067683765732e+01 0 0 0
366 150 1 2.0000000000000000e+00 -4.8688098629256507e+00 1.1492028739072241e+01 2.6355921906091466e+00 0 0 0
367 151 2 1.1232850000000001e+00 -4.7328292443523239e+00 8.8261976392470007e+00 4.2035140339897445e+00 0 0 0
368 151 3 -1.0410950000000001e+00 -3.4323383262384972e+00 8.8268501625713149e+00 4.1138974021370487e+00 0 0 0
369 151 3 -1.0410950000000001e+00 -5.4194546065717066e+00 9.9376644746466081e+00 4.2148894993470831e+00 0 0 0
370 151 3 -1.0410950000000001e+00 -5.3470128532629522e+00 7.7202749928928665e+00 4.2941296512007296e+00 0 0 0
371 152 2 1.1232850000000001e+00 -4.9588641592389555e+00 8.6245360046642361e+00 1.2854304738432832e+01 0 0 0
372 152 3 -1.0410950000000001e+00 -6.2253030588380129e+00 8.5303539122328189e+00 1.2866292532260406e+01 0 0 0
373 152 3 -1.0410950000000001e+00 -4.1684124930252446e+00 7.6293677725788331e+00 1.2758783234918047e+01 0 0 0
374 152 3 -1.0410950000000001e+00 -4.5077171224294386e+00 9.8379645239659581e+00 1.2857663012280931e+01 0 0 0
375 153 2 1.1232850000000001e+00 -2.3622805005385175e+00 1.0191521332285472e+01 9.8999160966835635e+00 0 0 0
376 153 3 -1.0410950000000001e+00 -1.0698605183623773e+00 1.0261155983537838e+01 9.7222928139376492e+00 0 0 0
377 153 3 -1.0410950000000001e+00 -3.0388330967418185e+00 1.1264900521145371e+01 1.0063198827643081e+01 0 0 0
378 153 3 -1.0410950000000001e+00 -2.9031782558648862e+00 9.0445444858516026e+00 9.9981753276683847e+00 0 0 0
379 154 2 1.1232850000000001e+00 -2.3512336043857633e+00 1.0107798507951365e+01 1.2444614332235155e+00 0 0 0
380 154 3 -1.0410950000000001e+00 -3.5950995535044039e+00 1.0282986443243976e+01 9.9224239447285290e-01 0 0 0
381 154 3 -1.0410950000000001e+00 -1.7471215212368305e+00 8.9475280386496081e+00 1.3667570016328576e+00 0 0 0
382 154 3 -1.0410950000000001e+00 -1.5706329210890200e+00 1.1170552857115931e+01 1.2442557930713201e+00 0 0 0
383 155 2 1.1232850000000001e+00 -4.8729892184995247e+00 1.1496494368224214e+01 1.5570812268153908e+01 0 0 0
384 155 3 -1.0410950000000001e+00 -3.5924574055099940e+00 1.1692478557753256e+01 1.5522897659658312e+01 0 0 0
385 155 3 -1.0410950000000001e+00 -5.6567002947483749e+00 1.2575885807331808e+01 1.5628776865002663e+01 0 0 0
386 155 3 -1.0410950000000001e+00 -5.4075628974232570e+00 1.0262050535033099e+01 1.5673511294913752e+01 0 0 0
387 156 2 1.1232850000000001e+00 -4.6921929427193731e+00 1.1502769069722103e+01 7.0575935120479762e+00 0 0 0
388 156 3 -1.0410950000000001e+00 -5.9836183682183854e+00 1.1426288978221743e+01 6.9849479658411404e+00 0 0 0
389 156 3 -1.0410950000000001e+00 -4.0068212574996034e+00 1.0406191338615455e+01 7.2548553220698793e+00 0 0 0
390 156 3 -1.0410950000000001e+00 -4.1494835613457086e+00 1.2671992767225825e+01 6.9757510187137601e+00 0 0 0
391 157 1 2.0000000000000000e+00 1.6705161785731359e-01 8.7067772072125642e+00 -2.0505269126587289e-01 0 0 0
392 158 1 2.0000000000000000e+00 1.4064577896249553e-01 8.6862286300938258e+00 8.3697416248884124e+00 0 0 0
395 161 1 2.0000000000000000e+00 2.9427079692382829e-01 1.1559654232204419e+01 1.1315490004129245e+01 0 0 0
396 162 1 2.0000000000000000e+00 1.3972714399356079e-01 1.1497896304601337e+01 2.7156044168434441e+00 0 0 0
397 163 2 1.1232850000000001e+00 2.2404016916418179e-01 8.7399258378265223e+00 4.1716185653011140e+00 0 0 0
398 163 3 -1.0410950000000001e+00 1.5161001558641303e+00 8.7718702355468512e+00 4.0349368301138950e+00 0 0 0
399 163 3 -1.0410950000000001e+00 -4.3055005598132112e-01 9.8386721317969315e+00 4.3082645287592705e+00 0 0 0
400 163 3 -1.0410950000000001e+00 -3.3308668074387882e-01 7.5978010551220638e+00 4.0961990249673690e+00 0 0 0
401 164 2 1.1232850000000001e+00 1.8739804465524568e-01 8.6713929017860778e+00 1.2694559528556605e+01 0 0 0
402 164 3 -1.0410950000000001e+00 -1.0991471747553021e+00 8.5768432680527376e+00 1.2606170412110350e+01 0 0 0
403 164 3 -1.0410950000000001e+00 8.6715372736983198e-01 7.6046641848416829e+00 1.2854280738937826e+01 0 0 0
404 164 3 -1.0410950000000001e+00 7.9128913491118347e-01 9.7773733895210384e+00 1.2704495994959913e+01 0 0 0
1071 430 3 -1.0410950000000001e+00 -1.4120698508329358e+01 2.1820766637692213e+01 1.4029771374932172e+00 1 0 0
1073 431 2 1.1232850000000001e+00 -1.7305658659222154e+01 2.4318963349932432e+01 1.5697834041857842e+01 1 0 0
413 167 2 1.1232850000000001e+00 1.1738214688803694e-01 1.1478282835805913e+01 1.5670099673802987e+01 0 0 0
415 167 3 -1.0410950000000001e+00 -4.9063084324420814e-01 1.2599765495016122e+01 1.5812210438792889e+01 0 0 0
416 167 3 -1.0410950000000001e+00 -6.2085006487824757e-01 1.0394052987696600e+01 1.5542067335616458e+01 0 0 0
417 168 2 1.1232850000000001e+00 8.6047800333619584e-02 1.1553368858966465e+01 7.2018611821061231e+00 0 0 0
418 168 3 -1.0410950000000001e+00 -1.2313312619111256e+00 1.1525554770085666e+01 7.2478320175048037e+00 0 0 0
419 168 3 -1.0410950000000001e+00 7.6103228164770620e-01 1.0402864512848707e+01 7.0905004602363517e+00 0 0 0
483 195 1 2.0000000000000000e+00 -1.2377362663045854e+01 1.0152474338457179e+01 5.5758304900562647e+00 1 0 0
484 196 1 2.0000000000000000e+00 -1.2427521311110501e+01 1.0187916927921474e+01 1.4148423253738960e+01 1 0 0
495 201 2 1.1232850000000001e+00 -1.2279002252741343e+01 1.0030515625965419e+01 9.8910981807466651e+00 1 0 0
496 201 3 -1.0410950000000001e+00 -1.0997576315624105e+01 1.0114839266337949e+01 1.0109437595535631e+01 1 0 0
497 201 3 -1.0410950000000001e+00 -1.3014485028636605e+01 1.1107308752071321e+01 9.7628217766040120e+00 1 0 0
499 202 2 1.1232850000000001e+00 -1.2210469932044694e+01 1.0105577341538678e+01 1.3077309095770953e+00 1 0 0
501 202 3 -1.0410950000000001e+00 -1.1664912674887148e+01 8.9472834225798952e+00 1.2504573271358481e+00 1 0 0
502 202 3 -1.0410950000000001e+00 -1.1504779750055015e+01 1.1187188260981802e+01 1.4654016016587437e+00 1 0 0
504 203 3 -1.0410950000000001e+00 -1.3400503652125130e+01 1.1644725869145249e+01 1.5717527538572330e+01 1 0 0
510 204 3 -1.0410950000000001e+00 -1.4172639144963121e+01 1.2616137200954233e+01 7.0065997940331668e+00 1 0 0
511 205 1 2.0000000000000000e+00 -9.7923800513741153e+00 8.7051265070409514e+00 -1.1831504090218659e-01 1 0 0
512 206 1 2.0000000000000000e+00 -9.9848368119866375e+00 8.5403809289058916e+00 8.4229669499838860e+00 1 0 0
513 207 1 2.0000000000000000e+00 -7.2041286896731362e+00 1.0156545013049863e+01 5.6619492679553325e+00 1 0 0
514 208 1 2.0000000000000000e+00 -7.2889636921481769e+00 1.0134191564968685e+01 1.4252879144789294e+01 1 0 0
515 209 1 2.0000000000000000e+00 -9.7330963926069227e+00 1.1525059284918777e+01 1.1372867460679180e+01 1 0 0
516 210 1 2.0000000000000000e+00 -9.6017910986393318e+00 1.1378355537515086e+01 2.8144783890898810e+00 1 0 0
517 211 2 1.1232850000000001e+00 -9.7442119101250704e+00 8.7735978962276580e+00 4.2385181135503345e+00 1 0 0
518 211 3 -1.0410950000000001e+00 -8.4997040008836269e+00 8.8678666566728914e+00 4.0837699302428287e+00 1 0 0
519 211 3 -1.0410950000000001e+00 -1.0502055853881101e+01 9.8515106263464265e+00 4.2465216637055869e+00 1 0 0
520 211 3 -1.0410950000000001e+00 -1.0309153196025401e+01 7.6129320345685567e+00 4.2150555894829731e+00 1 0 0
521 212 2 1.1232850000000001e+00 -9.9089432524416168e+00 8.7189274974719719e+00 1.2749560595125516e+01 1 0 0
522 212 3 -1.0410950000000001e+00 -1.1179490488451620e+01 8.6977736103581904e+00 1.2783617689014017e+01 1 0 0
523 212 3 -1.0410950000000001e+00 -9.3399243587606051e+00 7.6035931580575618e+00 1.2530492258447476e+01 1 0 0
524 212 3 -1.0410950000000001e+00 -9.2170171063384725e+00 9.7810766494137837e+00 1.2958725448690283e+01 1 0 0
525 213 2 1.1232850000000001e+00 -7.2813749875891984e+00 1.0161669888529936e+01 9.8089982470009591e+00 1 0 0
526 213 3 -1.0410950000000001e+00 -5.9558261605655733e+00 1.0099171502397237e+01 9.9567848286456915e+00 1 0 0
527 213 3 -1.0410950000000001e+00 -7.8589449434875043e+00 1.1304957260375382e+01 9.8996085999627290e+00 1 0 0
528 213 3 -1.0410950000000001e+00 -7.9568931233100759e+00 9.0436456007717005e+00 9.7216634698044295e+00 1 0 0
529 214 2 1.1232850000000001e+00 -7.3182850523648737e+00 1.0104022178745073e+01 1.3360518263768602e+00 1 0 0
530 214 3 -1.0410950000000001e+00 -8.6175629879905529e+00 9.9860900545813553e+00 1.3650894850716728e+00 1 0 0
531 214 3 -1.0410950000000001e+00 -6.5858851561241165e+00 9.0665673963673665e+00 1.3938345458598533e+00 1 0 0
532 214 3 -1.0410950000000001e+00 -6.8444414735248671e+00 1.1253246741049153e+01 1.3180583842324345e+00 1 0 0
533 215 2 1.1232850000000001e+00 -9.8283945986067618e+00 1.1627719508087210e+01 1.5709758860472174e+01 1 0 0
534 215 3 -1.0410950000000001e+00 -8.5744191776699843e+00 1.1507192417870492e+01 1.5582899725609309e+01 1 0 0
535 215 3 -1.0410950000000001e+00 -1.0381162184899040e+01 1.2797150269772430e+01 1.5782200131461238e+01 1 0 0
536 215 3 -1.0410950000000001e+00 -1.0619971371795998e+01 1.0600724901851438e+01 1.5759738775378629e+01 1 0 0
537 216 2 1.1232850000000001e+00 -9.7383866469352611e+00 1.1462443672465653e+01 7.0480140998266929e+00 1 0 0
538 216 3 -1.0410950000000001e+00 -1.1101899115808356e+01 1.1554344508027917e+01 7.0765892694970987e+00 1 0 0
539 216 3 -1.0410950000000001e+00 -9.1336305595128184e+00 1.0315283901497475e+01 7.0920958218752057e+00 1 0 0
540 216 3 -1.0410950000000001e+00 -9.0584198866424046e+00 1.2544024736634864e+01 6.9907437611956116e+00 1 0 0