LAMMPS data file via write_data, version 11 Aug 2017, timestep = 0

2160 atoms
3 atom types
1296 bonds
1 bond types
1296 angles
1 angle types
432 impropers
1 improper types

-7.3221661196949626e+00 2.2292167119695065e+01 xlo xhi
-5.6843531149328008e-01 2.5056299311493383e+01 ylo yhi
-8.5167798500282998e-01 3.3553676985003321e+01 zlo zhi
-1.4819962006810677e+01 -3.3199368393024155e-02 -1.6881125304770789e-02 xy xz yz

Masses

1 40.08
2 12.01
3 16

Bond Coeffs # harmonic

1 20.4246 1.3042

Angle Coeffs # class2

1 120 6.617 0 0

BondBond Coeffs

1 12.818 1.3042 1.3042

BondAngle Coeffs

1 1.53319 1.53319 1.3042 1.3042

Atoms # full

1 1 1 2.0000000000000000e+00 3.2817452487639720e-01 2.2880851824906934e-01 -1.6567614499902672e-01 0 0 0
2 2 1 2.0000000000000000e+00 9.2027167647009911e-02 1.4162808301749852e-01 8.4710711492047004e+00 0 0 0
3 3 1 2.0000000000000000e+00 2.5902002717388530e+00 1.6327775236114177e+00 5.6985445739146323e+00 0 0 0
4 4 1 2.0000000000000000e+00 2.5034797453591953e+00 1.5331978485643387e+00 1.4312940833124992e+01 0 0 0
5 5 1 2.0000000000000000e+00 3.7786965884941459e-02 2.8436140606432052e+00 1.1321070129573673e+01 0 0 0
6 6 1 2.0000000000000000e+00 -3.3891324178597415e-02 2.9969574176196221e+00 2.7471420502538719e+00 0 0 0
7 7 2 1.1232850000000001e+00 6.8318280555638822e-02 1.9519781381308543e-01 4.1565434168063735e+00 0 0 0
8 7 3 -1.0410950000000001e+00 1.3554704397488049e+00 2.9862589517656613e-01 4.2082304424126589e+00 0 0 0
9 7 3 -1.0410950000000001e+00 -5.7787046079099103e-01 1.2662081297115122e+00 4.2011183207861693e+00 0 0 0
10 7 3 -1.0410950000000001e+00 -1.5375488874931971e+01 2.4683319401908328e+01 4.1763308718947005e+00 0 -1 0
11 8 2 1.1232850000000001e+00 -2.4640972401353878e-02 1.7451094790952315e-01 1.2659954009343368e+01 0 0 0
12 8 3 -1.0410950000000001e+00 -1.2841582972196566e+00 2.8049060528324754e-01 1.2444972411299755e+01 0 0 0
13 8 3 -1.0410950000000001e+00 -1.4294158945084028e+01 2.4604640238930109e+01 1.2584327011452524e+01 0 -1 0
14 8 3 -1.0410950000000001e+00 6.5565237415839395e-01 1.2479868326935915e+00 1.2844145950060497e+01 0 0 0
15 9 2 1.1232850000000001e+00 2.5455437910144756e+00 1.6292409911750148e+00 9.9225342043128819e+00 0 0 0
16 9 3 -1.0410950000000001e+00 3.8056644693035580e+00 1.6193092919153131e+00 9.8475323962242012e+00 0 0 0
17 9 3 -1.0410950000000001e+00 1.9653052895581329e+00 2.7549506011681073e+00 9.9581460491133917e+00 0 0 0
18 9 3 -1.0410950000000001e+00 1.8351847866497035e+00 5.1441812398607722e-01 9.9230601640067899e+00 0 0 0
19 10 2 1.1232850000000001e+00 2.5763703693207098e+00 1.6040495462490467e+00 1.2537196415706298e+00 0 0 0
20 10 3 -1.0410950000000001e+00 1.3279841515888098e+00 1.8280430190774619e+00 1.0314288783458063e+00 0 0 0
21 10 3 -1.0410950000000001e+00 3.0305246126789189e+00 3.7411863176200744e-01 1.3671160408146577e+00 0 0 0
22 10 3 -1.0410950000000001e+00 3.3300502525305671e+00 2.6371237049172125e+00 1.3846269263148274e+00 0 0 0
23 11 2 1.1232850000000001e+00 1.3530363506470522e-01 3.0678080198463693e+00 1.5505030245362359e+01 0 0 0
24 11 3 -1.0410950000000001e+00 1.4076222626980499e+00 3.0211700305957230e+00 1.5550734705192824e+01 0 0 0
25 11 3 -1.0410950000000001e+00 -4.6246738661071429e-01 4.2068944198868605e+00 1.5528030413682927e+01 0 0 0
26 11 3 -1.0410950000000001e+00 -5.7473255403809276e-01 1.9717484410507433e+00 1.5500876456346997e+01 0 0 0
27 12 2 1.1232850000000001e+00 2.9018696354580875e-02 2.9976511003605961e+00 6.9522873301095203e+00 0 0 0
28 12 3 -1.0410950000000001e+00 -1.2014820988973511e+00 2.8802868332292797e+00 6.7689960681677439e+00 0 0 0
29 12 3 -1.0410950000000001e+00 7.5645641728430491e-01 1.9394930157121029e+00 7.0970355672934913e+00 0 0 0
30 12 3 -1.0410950000000001e+00 6.6376896329751123e-01 4.1171577022625536e+00 7.1210734745769173e+00 0 0 0
31 13 1 2.0000000000000000e+00 5.0185204651188897e+00 1.0671865948547310e-01 -1.1755907989129422e-01 0 0 0
32 14 1 2.0000000000000000e+00 4.9687475060068635e+00 1.8946499629165903e-01 8.4250508496362215e+00 0 0 0
35 17 1 2.0000000000000000e+00 4.9927708460711955e+00 2.9584325782399459e+00 1.1309080425022580e+01 0 0 0
36 18 1 2.0000000000000000e+00 5.1196352350314722e+00 3.1296718814294464e+00 2.7886675298639321e+00 0 0 0
37 19 2 1.1232850000000001e+00 5.0267382711351853e+00 2.1026317355790036e-01 4.0852785855105331e+00 0 0 0
38 19 3 -1.0410950000000001e+00 6.2887392507962776e+00 -1.9743629315032374e-02 4.0892004878783892e+00 0 0 0
39 19 3 -1.0410950000000001e+00 4.6191949203324612e+00 1.4214003807837363e+00 4.1573558330891265e+00 0 0 0
40 19 3 -1.0410950000000001e+00 -1.0661808609969469e+01 2.4815773403267386e+01 4.1366421558339717e+00 0 -1 0
41 20 2 1.1232850000000001e+00 4.9295583133670444e+00 5.8718569056887215e-02 1.2793180868764896e+01 0 0 0
42 20 3 -1.0410950000000001e+00 3.6397234833272005e+00 1.6105218923001208e-01 1.2893150798899441e+01 0 0 0
43 20 3 -1.0410950000000001e+00 -9.3491720822714246e+00 2.4524366174136333e+01 1.2677658268658654e+01 0 -1 0
44 20 3 -1.0410950000000001e+00 5.6728230425665824e+00 1.1383635767342530e+00 1.2797444591398161e+01 0 0 0
590 238 3 -1.0410950000000001e+00 -1.2938858439705276e+00 1.4373065027924902e+01 1.1988369727112778e+00 0 0 0
1080 432 3 -1.0410950000000001e+00 -1.7191948502529248e+00 -4.3105908797727099e-01 6.8463400756833517e+00 1 1 0
53 23 2 1.1232850000000001e+00 5.1910407016886371e+00 2.9043355295062061e+00 1.5679774136313082e+01 0 0 0
55 23 3 -1.0410950000000001e+00 4.6231325448994056e+00 4.0484990602960051e+00 1.5859320314937378e+01 0 0 0
56 23 3 -1.0410950000000001e+00 4.4477930765815401e+00 1.8242802302878931e+00 1.5579512806506919e+01 0 0 0
57 24 2 1.1232850000000001e+00 5.0188848513978339e+00 2.9944188858029008e+00 7.0001757763217105e+00 0 0 0
58 24 3 -1.0410950000000001e+00 3.6811479981975115e+00 3.0432811349173421e+00 7.0469985514847080e+00 0 0 0
59 24 3 -1.0410950000000001e+00 5.6089441879681239e+00 1.8296999812326580e+00 6.9712083930222883e+00 0 0 0
123 51 1 2.0000000000000000e+00 -7.3551381036182075e+00 1.6098569652017849e+00 5.5921276985371220e+00 1 0 0
124 52 1 2.0000000000000000e+00 -7.3989506563863365e+00 1.6904104736272534e+00 1.4199841088761190e+01 1 0 0
135 57 2 1.1232850000000001e+00 -7.2502081041054716e+00 1.5391231849202476e+00 9.8566133364557320e+00 1 0 0
136 57 3 -1.0410950000000001e+00 -6.0146874518368820e+00 1.5698811670625306e+00 9.7246698489674319e+00 1 0 0
137 57 3 -1.0410950000000001e+00 -7.9194351128929483e+00 2.6470746701492378e+00 9.8234254374101102e+00 1 0 0
139 58 2 1.1232850000000001e+00 -7.3271016433368246e+00 1.5325115799644360e+00 1.1139207490826182e+00 1 0 0
141 58 3 -1.0410950000000001e+00 -6.8738493004974552e+00 2.9427524134532113e-01 1.0551460658754117e+00 1 0 0
142 58 3 -1.0410950000000001e+00 -6.5011410313483671e+00 2.5634709442047319e+00 1.0939998413846970e+00 1 0 0
144 59 3 -1.0410950000000001e+00 -8.4744908319861665e+00 2.8367536962597262e+00 1.5768490332709696e+01 1 0 0
150 60 3 -1.0410950000000001e+00 -9.2133450330095190e+00 4.0495558219643142e+00 7.1149752516306597e+00 1 0 0
151 61 1 2.0000000000000000e+00 -4.9790668543850423e+00 3.2680090334166745e-02 -2.3725197210617210e-01 1 0 0
152 62 1 2.0000000000000000e+00 -4.7625804657179751e+00 1.5226333097441203e-01 8.3876563567709184e+00 1 0 0
153 63 1 2.0000000000000000e+00 -2.3831522822941515e+00 1.4751187320181338e+00 5.5860356242363691e+00 1 0 0
154 64 1 2.0000000000000000e+00 -2.3886679361050467e+00 1.5628521223683918e+00 1.4038817211663412e+01 1 0 0
155 65 1 2.0000000000000000e+00 -4.9288551583316309e+00 3.0265970659029198e+00 1.1336404058712150e+01 1 0 0
156 66 1 2.0000000000000000e+00 -4.7207194291671630e+00 3.0220927159224837e+00 2.6568279512612882e+00 1 0 0
157 67 2 1.1232850000000001e+00 -4.9052719228838608e+00 1.4839674995344732e-01 4.1595616569382194e+00 1 0 0
158 67 3 -1.0410950000000001e+00 -3.6094303166750872e+00 1.0584714932809192e-01 4.2591343073791448e+00 1 0 0
159 67 3 -1.0410950000000001e+00 -5.5189652877087632e+00 1.2692269529220543e+00 4.1452880850321723e+00 1 0 0
160 67 3 -1.0410950000000001e+00 -2.0303807315760665e+01 2.4639939124149087e+01 4.2566443803828209e+00 1 -1 0
161 68 2 1.1232850000000001e+00 -4.8976348109604579e+00 2.4208800265659058e-01 1.2714409414272899e+01 1 0 0
162 68 3 -1.0410950000000001e+00 -6.1607204686508972e+00 2.1492839026864885e-01 1.2813789832909638e+01 1 0 0
163 68 3 -1.0410950000000001e+00 -1.9109907685766707e+01 2.4714040016346459e+01 1.2576281013111867e+01 1 -1 0
164 68 3 -1.0410950000000001e+00 -4.2824925707343944e+00 1.3381407905853449e+00 1.2653282674378179e+01 1 0 0
165 69 2 1.1232850000000001e+00 -2.3049328599139507e+00 1.5402116961160082e+00 9.7164900474668592e+00 1 0 0
166 69 3 -1.0410950000000001e+00 -1.0756429388988780e+00 1.7519988550582721e+00 9.7003212212012748e+00 1 0 0
167 69 3 -1.0410950000000001e+00 -3.1321666327758484e+00 2.5165224399912582e+00 9.7947542858536494e+00 1 0 0
168 69 3 -1.0410950000000001e+00 -2.7659104713122078e+00 3.1577115017953961e-01 9.6192089574003212e+00 1 0 0
169 70 2 1.1232850000000001e+00 -2.3497487270332060e+00 1.6001058982137950e+00 1.2617966127024225e+00 1 0 0
170 70 3 -1.0410950000000001e+00 -3.6230935765261383e+00 1.4665742407548281e+00 1.2824409973941133e+00 1 0 0
171 70 3 -1.0410950000000001e+00 -1.5817362265504142e+00 6.0180123415415721e-01 1.4199804267690590e+00 1 0 0
172 70 3 -1.0410950000000001e+00 -1.8046393521709296e+00 2.7667453086595009e+00 1.1499513861765696e+00 1 0 0
173 71 2 1.1232850000000001e+00 -4.7846571342267383e+00 3.0402316274035717e+00 1.5507534577379463e+01 1 0 0
174 71 3 -1.0410950000000001e+00 -3.4604945688917259e+00 3.0053841906228138e+00 1.5550447631992647e+01 1 0 0
175 71 3 -1.0410950000000001e+00 -5.4994780058366297e+00 4.1242783938150867e+00 1.5456003830767457e+01 1 0 0
176 71 3 -1.0410950000000001e+00 -5.4455280080867601e+00 1.9305741625180732e+00 1.5612284828155264e+01 1 0 0
177 72 2 1.1232850000000001e+00 -4.8603131936105157e+00 2.9514469460612696e+00 7.1531906413225759e+00 1 0 0
178 72 3 -1.0410950000000001e+00 -6.1426397874023575e+00 2.9230205159463991e+00 7.1402955620259103e+00 1 0 0
179 72 3 -1.0410950000000001e+00 -4.2044706704445431e+00 1.8683617728134463e+00 7.0139256863065107e+00 1 0 0
180 72 3 -1.0410950000000001e+00 -4.2489632537663038e+00 4.0913074992442313e+00 7.2615962456716332e+00 1 0 0
181 73 1 2.0000000000000000e+00 -2.3091400638955815e+00 4.5546442640828824e+00 -2.3370480432333696e-01 0 0 0
182 74 1 2.0000000000000000e+00 -2.4085858710206400e+00 4.3917335735842524e+00 8.4957471865477938e+00 0 0 0
183 75 1 2.0000000000000000e+00 1.4888886805671309e-01 5.9118902780407359e+00 5.6068884639760599e+00 0 0 0
184 76 1 2.0000000000000000e+00 3.3583977958231870e-02 5.8784036098155257e+00 1.4052599186572049e+01 0 0 0
185 77 1 2.0000000000000000e+00 -2.4837332949631019e+00 7.1711311751226159e+00 1.1314898528307076e+01 0 0 0
186 78 1 2.0000000000000000e+00 -2.3274039733332907e+00 7.1778718444422447e+00 2.8587351336286262e+00 0 0 0
187 79 2 1.1232850000000001e+00 -2.3904163898342352e+00 4.3918403983535388e+00 4.1884866170914083e+00 0 0 0
188 79 3 -1.0410950000000001e+00 -1.0751309859849369e+00 4.5014600478484246e+00 4.2173836514722973e+00 0 0 0
189 79 3 -1.0410950000000001e+00 -3.0950846880336300e+00 5.4961666882744922e+00 4.2112379874926447e+00 0 0 0
190 79 3 -1.0410950000000001e+00 -2.9372280488819875e+00 3.1776203992090135e+00 4.1146779891549610e+00 0 0 0
191 80 2 1.1232850000000001e+00 -2.4797772819150214e+00 4.5068433710556803e+00 1.2569212935323126e+01 0 0 0
192 80 3 -1.0410950000000001e+00 -3.7422132088209836e+00 4.5532639847916450e+00 1.2697331374249655e+01 0 0 0
193 80 3 -1.0410950000000001e+00 -1.9036976373323844e+00 3.3045602376377712e+00 1.2457025862689257e+01 0 0 0
194 80 3 -1.0410950000000001e+00 -1.7702019495088734e+00 5.5706707836881142e+00 1.2584779711683900e+01 0 0 0
195 81 2 1.1232850000000001e+00 4.7669570454353050e-02 5.8114159385561175e+00 9.9458846602512629e+00 0 0 0
196 81 3 -1.0410950000000001e+00 1.3361954181130642e+00 5.8250878337427636e+00 1.0030156690764159e+01 0 0 0
197 81 3 -1.0410950000000001e+00 -5.6562098030634278e-01 6.8659239547414765e+00 9.7887513421978216e+00 0 0 0
198 81 3 -1.0410950000000001e+00 -5.9299142100384028e-01 4.6714991696022148e+00 9.9717817567582188e+00 0 0 0
199 82 2 1.1232850000000001e+00 1.3723642761735544e-01 5.9477756139293927e+00 1.3370981046201322e+00 0 0 0
200 82 3 -1.0410950000000001e+00 -1.1559019709283396e+00 5.9483566240559202e+00 1.3029458121093485e+00 0 0 0
201 82 3 -1.0410950000000001e+00 8.8673746673072884e-01 4.8703992134177527e+00 1.4183062276589551e+00 0 0 0
202 82 3 -1.0410950000000001e+00 7.1372504854761409e-01 7.0810220461162876e+00 1.2773741860179411e+00 0 0 0
203 83 2 1.1232850000000001e+00 -2.3916591242121550e+00 7.1712361557822062e+00 1.5621005578985667e+01 0 0 0
204 83 3 -1.0410950000000001e+00 -1.0564928130588171e+00 7.2701643013696442e+00 1.5654243767687159e+01 0 0 0
205 83 3 -1.0410950000000001e+00 -3.0521865615740804e+00 8.2757212711616788e+00 1.5679896096538336e+01 0 0 0
206 83 3 -1.0410950000000001e+00 -2.9292034943220004e+00 5.9984654709430032e+00 1.5607791283508263e+01 0 0 0
207 84 2 1.1232850000000001e+00 -2.3043365179274540e+00 7.1809623997854377e+00 6.9120200407542347e+00 0 0 0
208 84 3 -1.0410950000000001e+00 -3.5629057100795070e+00 7.2284006773835907e+00 7.0190535334043140e+00 0 0 0
209 84 3 -1.0410950000000001e+00 -1.7037122304969774e+00 6.0565076303560890e+00 7.0650256627407533e+00 0 0 0
210 84 3 -1.0410950000000001e+00 -1.6879847796607796e+00 8.3374822370637052e+00 6.7407017018595861e+00 0 0 0
211 85 1 2.0000000000000000e+00 2.6628108521117309e+00 4.2978787091274020e+00 -1.2965310868121904e-01 0 0 0
212 86 1 2.0000000000000000e+00 2.4273220778463660e+00 4.3863634254831245e+00 8.5520905473899536e+00 0 0 0
215 89 1 2.0000000000000000e+00 2.6271474926481932e+00 7.2858266299260652e+00 1.1336741390415440e+01 0 0 0
216 90 1 2.0000000000000000e+00 2.4662298127946016e+00 7.2640502026762235e+00 2.6453271110378740e+00 0 0 0
217 91 2 1.1232850000000001e+00 2.4196429993810842e+00 4.3491284147628289e+00 4.2566301993537596e+00 0 0 0
218 91 3 -1.0410950000000001e+00 3.7405921016564001e+00 4.2999665623573282e+00 4.3373503860997964e+00 0 0 0
219 91 3 -1.0410950000000001e+00 1.8826527397978836e+00 5.5508961481974985e+00 4.1492913199717076e+00 0 0 0
220 91 3 -1.0410950000000001e+00 1.7133063685953509e+00 3.2489699983307454e+00 4.2800385091347941e+00 0 0 0
221 92 2 1.1232850000000001e+00 2.4511206466492030e+00 4.4015682186422680e+00 1.2849275526932916e+01 0 0 0
222 92 3 -1.0410950000000001e+00 1.1115227459911079e+00 4.2928821164080642e+00 1.2768383249672071e+01 0 0 0
223 92 3 -1.0410950000000001e+00 3.1704711941472770e+00 3.3250202747973834e+00 1.2708199358096435e+01 0 0 0
224 92 3 -1.0410950000000001e+00 2.9883933632010748e+00 5.5652176926849606e+00 1.2975376427524921e+01 0 0 0
230 94 3 -1.0410950000000001e+00 3.7200406081017121e+00 5.8896671293838105e+00 1.2962186606173791e+00 0 0 0
1074 431 3 -1.0410950000000001e+00 -1.5992905724626072e+01 2.4472295038481029e+01 1.5722118854685544e+01 1 0 0
233 95 2 1.1232850000000001e+00 2.4337376170109692e+00 7.1770182669811442e+00 1.5562799286404211e+01 0 0 0
235 95 3 -1.0410950000000001e+00 1.8625989963888934e+00 8.3038837282471967e+00 1.5528983470280142e+01 0 0 0
236 95 3 -1.0410950000000001e+00 1.7060902024550639e+00 6.0852601289649533e+00 1.5575036379575945e+01 0 0 0
237 96 2 1.1232850000000001e+00 2.5102829957085291e+00 7.3078340588833219e+00 7.0821444873798605e+00 0 0 0
238 96 3 -1.0410950000000001e+00 1.2307441708951625e+00 7.4649700828497068e+00 6.9830668545204428e+00 0 0 0
239 96 3 -1.0410950000000001e+00 2.9835823398957881e+00 6.0948344122801306e+00 7.1110088140720329e+00 0 0 0
303 123 1 2.0000000000000000e+00 -9.7571162926234010e+00 5.8857142563786775e+00 5.7010681598165664e+00 1 0 0
304 124 1 2.0000000000000000e+00 -9.8459758510482764e+00 5.9035869254695585e+00 1.4178756021567310e+01 1 0 0
315 129 2 1.1232850000000001e+00 -9.8478426228724452e+00 6.0270339709991614e+00 9.8211077472119701e+00 1 0 0
316 129 3 -1.0410950000000001e+00 -8.5388609520319143e+00 5.9202029042451603e+00 9.6980921225522874e+00 1 0 0
317 129 3 -1.0410950000000001e+00 -1.0374041192335607e+01 7.1578600498312506e+00 9.9488811253693861e+00 1 0 0
319 130 2 1.1232850000000001e+00 -9.7735442321566595e+00 5.7864357837156968e+00 1.5164942357395725e+00 1 0 0
321 130 3 -1.0410950000000001e+00 -9.0166327399196309e+00 4.7596310230669729e+00 1.5076576912717603e+00 1 0 0
322 130 3 -1.0410950000000001e+00 -9.2261026334197442e+00 6.9379054801701807e+00 1.5441015718934321e+00 1 0 0
324 131 3 -1.0410950000000001e+00 -1.1090140554690059e+01 7.4246662862116084e+00 1.5487452277827778e+01 1 0 0
330 132 3 -1.0410950000000001e+00 -1.1690065352389926e+01 8.3349159103699240e+00 7.1910796559667318e+00 1 0 0
331 133 1 2.0000000000000000e+00 -7.3948704768484150e+00 4.3351129296428512e+00 -1.1401170875690070e-01 1 0 0
332 134 1 2.0000000000000000e+00 -7.3462055972931450e+00 4.3914803480682902e+00 8.5058695937145448e+00 1 0 0
333 135 1 2.0000000000000000e+00 -4.9592457298071935e+00 5.6525674337081542e+00 5.6071230112151849e+00 1 0 0
334 136 1 2.0000000000000000e+00 -4.8947682856682260e+00 5.8944857591531621e+00 1.4247573646347695e+01 1 0 0
335 137 1 2.0000000000000000e+00 -7.4300821900474121e+00 7.2609026448522247e+00 1.1269034148073029e+01 1 0 0
336 138 1 2.0000000000000000e+00 -7.3194209289025469e+00 7.2159185942172419e+00 2.7175636885871919e+00 1 0 0
337 139 2 1.1232850000000001e+00 -7.3423919403392954e+00 4.4059903648832126e+00 4.0946826982374676e+00 1 0 0
338 139 3 -1.0410950000000001e+00 -6.0582021300518134e+00 4.4773770633322147e+00 4.0010911241599780e+00 1 0 0
339 139 3 -1.0410950000000001e+00 -8.0275712010262055e+00 5.5139253633842520e+00 4.2228616832463777e+00 1 0 0
340 139 3 -1.0410950000000001e+00 -7.9398063316354408e+00 3.3049294218246374e+00 4.0912877481685932e+00 1 0 0
341 140 2 1.1232850000000001e+00 -7.4542970580194412e+00 4.5191450411643430e+00 1.2766882497115349e+01 1 0 0
342 140 3 -1.0410950000000001e+00 -8.7081691617712078e+00 4.6107834248219621e+00 1.2626518652843947e+01 1 0 0
343 140 3 -1.0410950000000001e+00 -6.8698913800164760e+00 3.3816682641617724e+00 1.2821240604083968e+01 1 0 0
344 140 3 -1.0410950000000001e+00 -6.7336259561953664e+00 5.5725333424714361e+00 1.2792103065155560e+01 1 0 0
345 141 2 1.1232850000000001e+00 -5.0674220848454414e+00 5.8772034304776941e+00 9.9619361140975986e+00 1 0 0
346 141 3 -1.0410950000000001e+00 -3.7898374951952061e+00 5.8447404137827377e+00 9.8999962071365886e+00 1 0 0
347 141 3 -1.0410950000000001e+00 -5.6467860664311464e+00 7.0687625937043501e+00 9.9202016304337963e+00 1 0 0
348 141 3 -1.0410950000000001e+00 -5.7399950376465396e+00 4.7937840098620912e+00 1.0070945763858465e+01 1 0 0
349 142 2 1.1232850000000001e+00 -4.6929859683194746e+00 5.7843290885573824e+00 1.2965090037662748e+00 1 0 0
350 142 3 -1.0410950000000001e+00 -5.9622979344216107e+00 5.6761167954468119e+00 1.3011732009627117e+00 1 0 0
351 142 3 -1.0410950000000001e+00 -3.9900505062969067e+00 4.7533388826959673e+00 1.4397891143522483e+00 1 0 0
352 142 3 -1.0410950000000001e+00 -4.1782230589149369e+00 6.9691518066196805e+00 1.3544202898868942e+00 1 0 0
353 143 2 1.1232850000000001e+00 -7.4140979515862444e+00 7.2332639576783961e+00 1.5594586213543565e+01 1 0 0
354 143 3 -1.0410950000000001e+00 -6.1332356613195298e+00 7.2695658659032771e+00 1.5558735568105565e+01 1 0 0
355 143 3 -1.0410950000000001e+00 -8.0848269348588850e+00 8.3576418105317369e+00 1.5558044126868232e+01 1 0 0
356 143 3 -1.0410950000000001e+00 -8.0374360324854575e+00 6.1440272673145033e+00 1.5652278381481263e+01 1 0 0
357 144 2 1.1232850000000001e+00 -7.3010736484668577e+00 7.2504643816394498e+00 6.9606693067537808e+00 1 0 0
358 144 3 -1.0410950000000001e+00 -8.6115127468240882e+00 7.3962643747311265e+00 6.9223386742469746e+00 1 0 0
359 144 3 -1.0410950000000001e+00 -6.7473859949985595e+00 6.0516676838924903e+00 7.0081788645717067e+00 1 0 0
360 144 3 -1.0410950000000001e+00 -6.5175746562293444e+00 8.2412444995897811e+00 6.8716172328090703e+00 1 0 0
361 145 1 2.0000000000000000e+00 -4.8737656670170040e+00 8.8012214510333440e+00 -1.6656322589666128e-01 0 0 0
362 146 1 2.0000000000000000e+00 -4.9190421824349482e+00 8.7161571085823351e+00 8.5174055409203095e+00 0 0 0
363 147 1 2.0000000000000000e+00 -2.4396301078160780e+00 1.0098429694827534e+01 5.4902673770682009e+00 0 0 0
364 148 1 2.0000000000000000e+00 -2.4474124476792172e+00 1.0157093182100510e+01 1.4150855045657348e+01 0 0 0
365 149 1 2.0000000000000000e+00 -5.0071512840034220e+00 1.1576150480553899e+01 1.1384096038628213e+01 0 0 0
366 150 1 2.0000000000000000e+00 -4.8199858626965222e+00 1.1566490742966177e+01 2.6741235642488710e+00 0 0 0
367 151 2 1.1232850000000001e+00 -4.8335426788433900e+00 8.6214819337740032e+00 4.1823620922924079e+00 0 0 0
368 151 3 -1.0410950000000001e+00 -3.5869601961398803e+00 8.4490807556417344e+00 4.1971034543901373e+00 0 0 0
369 151 3 -1.0410950000000001e+00 -5.3846183326825692e+00 9.7914186463567852e+00 4.2467536497298415e+00 0 0 0
370 151 3 -1.0410950000000001e+00 -5.6000037011439110e+00 7.5453908436041015e+00 4.1856539725462500e+00 0 0 0
371 152 2 1.1232850000000001e+00 -4.9388264387828720e+00 8.6714650699487184e+00 1.2778561805418134e+01 0 0 0
372 152 3 -1.0410950000000001e+00 -6.2466542409908890e+00 8.5352724117088723e+00 1.2899516665845432e+01 0 0 0
373 152 3 -1.0410950000000001e+00 -4.2137680792644545e+00 7.6024192580537147e+00 1.2760461295533636e+01 0 0 0
374 152 3 -1.0410950000000001e+00 -4.4056668131342835e+00 9.8427518934672165e+00 1.2918657643874576e+01 0 0 0
375 153 2 1.1232850000000001e+00 -2.4561974033657030e+00 9.9310936368750848e+00 1.0167286236596215e+01 0 0 0
376 153 3 -1.0410950000000001e+00 -1.2082860476547346e+00 9.8456776826157082e+00 1.0116926360795494e+01 0 0 0
377 153 3 -1.0410950000000001e+00 -2.9999834489268187e+00 1.1131974774256978e+01 1.0304991741188992e+01 0 0 0
378 153 3 -1.0410950000000001e+00 -3.1607731456835859e+00 8.9290063404877600e+00 1.0031223987535022e+01 0 0 0
379 154 2 1.1232850000000001e+00 -2.3862966224837523e+00 1.0086750404672856e+01 1.2280795063541454e+00 0 0 0
380 154 3 -1.0410950000000001e+00 -3.6897459561899111e+00 1.0043625433346580e+01 1.3668094564329136e+00 0 0 0
381 154 3 -1.0410950000000001e+00 -1.7375127161165516e+00 9.0096069343463565e+00 1.3547353344081619e+00 0 0 0
382 154 3 -1.0410950000000001e+00 -1.8319896678544252e+00 1.1214381401728954e+01 9.9557566974998291e-01 0 0 0
383 155 2 1.1232850000000001e+00 -4.9862627577554122e+00 1.1439105978152277e+01 1.5561321612543875e+01 0 0 0
384 155 3 -1.0410950000000001e+00 -3.7310890820473421e+00 1.1396943961996058e+01 1.5648320940405167e+01 0 0 0
385 155 3 -1.0410950000000001e+00 -5.6691456520694228e+00 1.2561278537824787e+01 1.5525537709541531e+01 0 0 0
386 155 3 -1.0410950000000001e+00 -5.6641955065536642e+00 1.0365238103456448e+01 1.5707119381100245e+01 0 0 0
387 156 2 1.1232850000000001e+00 -4.9703420870222565e+00 1.1560401527367537e+01 7.0783413807702669e+00 0 0 0
388 156 3 -1.0410950000000001e+00 -6.2489784460011908e+00 1.1411097060534805e+01 7.1214531148315503e+00 0 0 0
389 156 3 -1.0410950000000001e+00 -4.2523902935306168e+00 1.0528812213172399e+01 7.0709584986169878e+00 0 0 0
390 156 3 -1.0410950000000001e+00 -4.4130824122341963e+00 1.2741015159672921e+01 7.1663966067221647e+00 0 0 0
391 157 1 2.0000000000000000e+00 4.2011241161238999e-02 8.7685209887737443e+00 -2.8021356607895576e-01 0 0 0
392 158 1 2.0000000000000000e+00 6.1276329238694416e-02 8.7645203204479269e+00 8.5108974012204719e+00 0 0 0
395 161 1 2.0000000000000000e+00 1.1008040909458305e-01 1.1425703550251358e+01 1.1369256278472086e+01 0 0 0
396 162 1 2.0000000000000000e+00 1.3520817721575540e-01 1.1522079576896509e+01 2.6434112292916652e+00 0 0 0
397 163 2 1.1232850000000001e+00 1.5643947575019901e-01 8.7982754121792865e+00 4.0704492837555746e+00 0 0 0
398 163 3 -1.0410950000000001e+00 1.3943803399695653e+00 8.9616120014903196e+00 3.8238919891882626e+00 0 0 0
399 163 3 -1.0410950000000001e+00 -5.8857978130998045e-01 9.8731828521343452e+00 4.1407180256337259e+00 0 0 0
400 163 3 -1.0410950000000001e+00 -3.7981593001077396e-01 7.6298809488134154e+00 4.1504165042767118e+00 0 0 0
401 164 2 1.1232850000000001e+00 5.4631070725824848e-02 8.7597613396208409e+00 1.2746107144295294e+01 0 0 0
402 164 3 -1.0410950000000001e+00 -1.2771554522954549e+00 8.8100683530182948e+00 1.2674548890450746e+01 0 0 0
403 164 3 -1.0410950000000001e+00 7.0536233785743008e-01 7.6188636374679497e+00 1.2665015430356577e+01 0 0 0
404 164 3 -1.0410950000000001e+00 7.0557823026933697e-01 9.8372488504170938e+00 1.2798981209392819e+01 0 0 0
1079 432 3 -1.0410950000000001e+00 -1.6574818290096637e+01 2.2983247258193273e+01 7.0910663955499169e+00 1 0 0
1076 431 3 -1.0410950000000001e+00 -1.7767324137887414e+01 2.3198103239292358e+01 1.5595161480027475e+01 1 0 0
413 167 2 1.1232850000000001e+00 3.9863545667152778e-02 1.1631253780887564e+01 1.5677479473942107e+01 0 0 0
415 167 3 -1.0410950000000001e+00 -5.4563162902217943e-01 1.2803562145794897e+01 1.5595299698612077e+01 0 0 0
416 167 3 -1.0410950000000001e+00 -6.3588682712514188e-01 1.0564996518547987e+01 1.5798716489899373e+01 0 0 0
417 168 2 1.1232850000000001e+00 -1.3344403767156177e-01 1.1491483453135102e+01 7.0502400503308982e+00 0 0 0
418 168 3 -1.0410950000000001e+00 -1.3917244133314810e+00 1.1391401125568668e+01 7.0636038414228146e+00 0 0 0
419 168 3 -1.0410950000000001e+00 5.8857993580893719e-01 1.0394350849190561e+01 6.8867530262152039e+00 0 0 0
483 195 1 2.0000000000000000e+00 -1.2500133757976840e+01 1.0054989069424570e+01 5.5666840167082228e+00 1 0 0
484 196 1 2.0000000000000000e+00 -1.2382376692911762e+01 1.0068887912543527e+01 1.4222344223492009e+01 1 0 0
495 201 2 1.1232850000000001e+00 -1.2337850238928766e+01 1.0143427803916135e+01 9.9248783891574632e+00 1 0 0
496 201 3 -1.0410950000000001e+00 -1.1052821626446132e+01 1.0192958110700017e+01 9.9599780532915005e+00 1 0 0
497 201 3 -1.0410950000000001e+00 -1.3028631357879116e+01 1.1183538869074310e+01 9.7767919768230236e+00 1 0 0
499 202 2 1.1232850000000001e+00 -1.2318388982868672e+01 9.9747813684356608e+00 1.4057781941386813e+00 1 0 0
501 202 3 -1.0410950000000001e+00 -1.1640561543668195e+01 8.8851432682167193e+00 1.3195725389810384e+00 1 0 0
502 202 3 -1.0410950000000001e+00 -1.1721818947953750e+01 1.1102955247249014e+01 1.3554259024811763e+00 1 0 0
504 203 3 -1.0410950000000001e+00 -1.3623788013976524e+01 1.1588970037451571e+01 1.5660827367725972e+01 1 0 0
510 204 3 -1.0410950000000001e+00 -1.4040015001975540e+01 1.2502164735327870e+01 6.9774443650051809e+00 1 0 0
511 205 1 2.0000000000000000e+00 -9.9266962592269667e+00 8.6972638249923833e+00 -1.3414608784699034e-01 1 0 0
512 206 1 2.0000000000000000e+00 -9.9081832157004577e+00 8.9312055465382834e+00 8.3984777495491354e+00 1 0 0
513 207 1 2.0000000000000000e+00 -7.2467337626642534e+00 1.0031583041650810e+01 5.4730160844445983e+00 1 0 0
514 208 1 2.0000000000000000e+00 -7.4049047537822146e+00 1.0050109341594313e+01 1.4130533386422446e+01 1 0 0
515 209 1 2.0000000000000000e+00 -9.8488456746046751e+00 1.1560296310079419e+01 1.1390948528209540e+01 1 0 0
516 210 1 2.0000000000000000e+00 -9.8637336178023372e+00 1.1388706696643267e+01 2.7011625927692759e+00 1 0 0
517 211 2 1.1232850000000001e+00 -9.8188599165080799e+00 8.6332837265161153e+00 4.1169722042706338e+00 1 0 0
518 211 3 -1.0410950000000001e+00 -8.5913510782407485e+00 8.6850348204663739e+00 4.0693748241049930e+00 1 0 0
519 211 3 -1.0410950000000001e+00 -1.0533045495381746e+01 9.7321868843404697e+00 4.1380329814513983e+00 1 0 0
520 211 3 -1.0410950000000001e+00 -1.0392492282839410e+01 7.4635247322878460e+00 4.1235708782475582e+00 1 0 0
521 212 2 1.1232850000000001e+00 -9.8738662993076343e+00 8.7613399842341426e+00 1.2647442109440307e+01 1 0 0
522 212 3 -1.0410950000000001e+00 -1.1212504156316569e+01 8.7757246835930403e+00 1.2666295479622232e+01 1 0 0
523 212 3 -1.0410950000000001e+00 -9.2415365363682582e+00 7.6616167239302371e+00 1.2700686339837386e+01 1 0 0
524 212 3 -1.0410950000000001e+00 -9.2670811629759768e+00 9.8853859857182371e+00 1.2710296463622035e+01 1 0 0
525 213 2 1.1232850000000001e+00 -7.4979408914298533e+00 1.0069767543492290e+01 9.7578252681548250e+00 1 0 0
526 213 3 -1.0410950000000001e+00 -6.1817792839962937e+00 1.0151479262311430e+01 9.8089785905476177e+00 1 0 0
527 213 3 -1.0410950000000001e+00 -8.1867372883980174e+00 1.1192534554432360e+01 9.7932654193744089e+00 1 0 0
528 213 3 -1.0410950000000001e+00 -8.0512381808634839e+00 8.9416398549457252e+00 9.7616435104899786e+00 1 0 0
529 214 2 1.1232850000000001e+00 -7.2562140191682625e+00 1.0242964006771810e+01 1.2934865447711803e+00 1 0 0
530 214 3 -1.0410950000000001e+00 -8.5277284842352437e+00 1.0255767728078141e+01 1.1772753383985326e+00 1 0 0
531 214 3 -1.0410950000000001e+00 -6.6529151382703535e+00 9.0791274905725281e+00 1.3340472685391354e+00 1 0 0
532 214 3 -1.0410950000000001e+00 -6.5935210300884233e+00 1.1347311867895161e+01 1.3100005627351332e+00 1 0 0
533 215 2 1.1232850000000001e+00 -9.9181294649575911e+00 1.1464224081673295e+01 1.5591123679579628e+01 1 0 0
534 215 3 -1.0410950000000001e+00 -8.6041754820619030e+00 1.1453853618338156e+01 1.5594845892262356e+01 1 0 0
535 215 3 -1.0410950000000001e+00 -1.0563931202466502e+01 1.2533701321806202e+01 1.5522805076397773e+01 1 0 0
536 215 3 -1.0410950000000001e+00 -1.0521705930792150e+01 1.0361309176101544e+01 1.5659837431852150e+01 1 0 0
537 216 2 1.1232850000000001e+00 -9.8733467696571804e+00 1.1424771318958902e+01 6.9717633578479790e+00 1 0 0
538 216 3 -1.0410950000000001e+00 -1.1174411234522514e+01 1.1277100912749640e+01 7.2099545575293362e+00 1 0 0
539 216 3 -1.0410950000000001e+00 -9.1751982081587613e+00 1.0426614412884044e+01 6.7541708090271202e+00 1 0 0
540 216 3 -1.0410950000000001e+00 -9.3391204516321107e+00 1.2594925286130763e+01 7.1114458020648721e+00 1 0 0